
#(C) 2023 by FIZ Karlsruhe - Leibniz Institute for Information Infrastructure.  All rights reserved.
data_246645-ICSD
_database_code_ICSD 246645
_audit_creation_date 2010-02-01
_audit_update_record 2013-02-01
_chemical_name_common 'Terbium barium iron(II/III) oxide (1/1/2/5.01)'
_chemical_formula_structural 'Tb Ba Fe2 O5.01'
_chemical_formula_sum 'Ba1 Fe2 O5.01 Tb1'
_chemical_name_structure_type YBaFe2O5
_exptl_crystal_density_diffrn 6.92
_diffrn_ambient_temperature 70.
_citation_title

;
Verwey transition in mixed-valence Tb Ba Fe2 O5: Two attempts to order charges
;
loop_
_citation_id
_citation_journal_full
_citation_year
_citation_journal_volume
_citation_page_first
_citation_page_last
_citation_journal_id_ASTM
primary 'Physical Review B: Condensed Matter and Materials Physics' 2001 64 1 14
PRBMDO
loop_
_citation_author_citation_id
_citation_author_name
primary 'Karen, P.'
primary 'Woodward, P.M.'
primary 'Linden, J.'
primary 'Vogt, T.'
primary 'Studer, A.'
primary 'Fischer, P.'
_cell_length_a 8.0575(2)
_cell_length_b 3.85032(6)
_cell_length_c 7.5526(2)
_cell_angle_alpha 90.
_cell_angle_beta 90.
_cell_angle_gamma 90.
_cell_volume 234.31
_cell_formula_units_Z 2
_space_group_name_H-M_alt 'P m m a'
_space_group_IT_number 51
loop_
_space_group_symop_id
_space_group_symop_operation_xyz
1 '-x+1/2, -y, z'
2 'x+1/2, -y, -z'
3 'x, -y, z'
4 '-x, -y, -z'
5 'x+1/2, y, -z'
6 '-x+1/2, y, z'
7 '-x, y, -z'
8 'x, y, z'
loop_
_atom_type_symbol
_atom_type_oxidation_number
Tb3+ 3
Ba2+ 2
Fe3+ 2.5
O2- -2
loop_
_atom_site_label
_atom_site_type_symbol
_atom_site_symmetry_multiplicity
_atom_site_Wyckoff_symbol
_atom_site_fract_x
_atom_site_fract_y
_atom_site_fract_z
_atom_site_U_iso_or_equiv
_atom_site_occupancy
Tb1 Tb3+ 2 c 0 0 0.5 0.0010(4) 1.
Ba1 Ba2+ 2 a 0 0 0 0.0022(5) 1.
Fe1 Fe3+ 2 f 0.25 0.5 0.2527(3) 0.0017(3) 1.
Fe2 Fe3+ 2 f 0.75 0.5 0.2690(3) 0.0017(3) 1.
O1 O2- 2 f 0.25 0.5 0.0019(8) . 1.
O2 O2- 2 e 0.75 0 0.3190(6) . 1.
O3 O2- 2 e 0.25 0 0.3109(6) . 1.
O4 O2- 4 j 0.0120(5) 0.5 0.3097(2) . 1.
O5 O2- 2 f 0.25 0.5 0.5 0.002 0.010(4)
loop_
_atom_site_aniso_label
_atom_site_aniso_type_symbol
_atom_site_aniso_U_11
_atom_site_aniso_U_22
_atom_site_aniso_U_33
_atom_site_aniso_U_12
_atom_site_aniso_U_13
_atom_site_aniso_U_23
O1 O2- 0.007(1) 0.006(1) 0.001(1) 0 0 0
O2 O2- 0.0043(8) 0.0023(9) 0.0071(9) 0 0 0
O3 O2- 0.0043(8) 0.0023(9) 0.0071(9) 0 0 0
O4 O2- 0.001(1) 0.0028(8) 0.006(1) 0 0 0
#End of TTdata_246645-ICSD